                         Program Version 5.0.3 -  RELEASE  -
|  1> ! DFT B3LYP TZVP def2/J RIJCOSX
|  2> %maxcore 8000
|  3>
|  4> * xyz 0 1
|  5>   C       34.610000000     27.730000000     26.070000000
|  6>   H       34.680000000     27.270000000     25.090000000
|  7>   C       35.180000000     28.540000000     28.000000000
|  8>   C       35.820000000     29.050000000     29.140000000
|  9>   H       36.880000000     29.300000000     29.130000000
| 10>   C       38.130000000     30.250000000     24.620000000
| 11>   C       37.280000000     29.840000000     23.590000000
| 12>   H       36.600000000     28.990000000     23.720000000
| 13>   C       35.010000000     29.540000000     30.140000000
| 14>   H       35.480000000     30.070000000     30.970000000
| 15>   C       37.040000000     30.750000000     22.580000000
| 16>   H       36.150000000     30.620000000     21.980000000
| 17>   N       38.440000000     29.660000000     25.830000000
| 18>   N       35.700000000     28.000000000     26.830000000
| 19>   Zn      37.670000000     27.880000000     26.400000000
| 20>   C       29.770000000     30.350000000     26.420000000
| 21>   H       29.380000000     30.090000000     27.400000000
| 22>   C       30.900000000     30.260000000     24.570000000
| 23>   C       31.820000000     30.000000000     23.540000000
| 24>   H       32.550000000     29.200000000     23.610000000
| 25>   C       33.770000000     28.570000000     27.880000000
| 26>   C       32.980000000     29.180000000     28.850000000
| 27>   H       31.930000000     29.430000000     28.670000000
| 28>   C       31.920000000     30.950000000     22.540000000
| 29>   H       32.670000000     30.820000000     21.760000000
| 30>   C       33.620000000     29.650000000     29.970000000
| 31>   H       33.080000000     30.370000000     30.590000000
| 32>   N       33.420000000     28.020000000     26.660000000
| 33>   N       30.650000000     29.570000000     25.740000000
| 34>   Zn      31.480000000     27.780000000     26.150000000
| 35>   C       39.260000000     30.550000000     26.440000000
| 36>   H       39.700000000     30.370000000     27.420000000
| 37>   C       38.800000000     31.500000000     24.550000000
| 38>   C       38.680000000     32.320000000     23.420000000
| 39>   H       38.980000000     33.370000000     23.460000000
| 40>   C       38.810000000     34.880000000     27.850000000
| 41>   C       38.710000000     33.900000000     28.830000000
| 42>   H       38.910000000     32.850000000     28.610000000
| 43>   C       37.830000000     31.900000000     22.420000000
| 44>   H       37.580000000     32.590000000     21.620000000
| 45>   C       38.090000000     34.260000000     30.010000000
| 46>   H       37.730000000     33.440000000     30.630000000
| 47>   N       39.530000000     34.900000000     26.670000000
| 48>   N       39.560000000     31.640000000     25.700000000
| 49>   Zn      40.640000000     33.290000000     26.140000000
| 50>   C       39.130000000     36.030000000     26.060000000
| 51>   H       39.510000000     36.330000000     25.080000000
| 52>   C       38.100000000     36.090000000     27.960000000
| 53>   C       37.410000000     36.420000000     29.130000000
| 54>   H       36.650000000     37.210000000     29.150000000
| 55>   C       35.100000000     37.820000000     24.640000000
| 56>   C       35.850000000     37.400000000     23.550000000
| 57>   H       36.930000000     37.230000000     23.630000000
| 58>   C       37.500000000     35.530000000     30.180000000
| 59>   H       36.830000000     35.670000000     31.030000000
| 60>   C       35.160000000     36.820000000     22.500000000
| 61>   H       35.730000000     36.170000000     21.850000000
| 62>   N       35.500000000     38.400000000     25.840000000
| 63>   N       38.310000000     36.820000000     26.790000000
| 64>   Zn      37.450000000     38.600000000     26.380000000
| 65>   C       29.570000000     35.850000000     26.230000000
| 66>   H       29.140000000     36.010000000     25.240000000
| 67>   C       30.010000000     34.960000000     28.160000000
| 68>   C       30.190000000     34.120000000     29.280000000
| 69>   H       29.770000000     33.110000000     29.300000000
| 70>   C       30.080000000     31.420000000     24.550000000
| 71>   C       30.220000000     32.380000000     23.550000000
| 72>   H       29.800000000     33.380000000     23.650000000
| 73>   C       31.220000000     34.440000000     30.140000000
| 74>   H       31.490000000     33.740000000     30.930000000
| 75>   C       31.160000000     32.120000000     22.560000000
| 76>   H       31.480000000     32.960000000     21.960000000
| 77>   N       29.390000000     31.480000000     25.770000000
| 78>   N       29.260000000     34.780000000     26.990000000
| 79>   Zn      28.290000000     33.080000000     26.420000000
| 80>   C       34.340000000     38.610000000     26.500000000
| 81>   H       34.310000000     39.100000000     27.480000000
| 82>   C       33.700000000     37.660000000     24.670000000
| 83>   C       33.010000000     37.090000000     23.590000000
| 84>   H       31.960000000     36.820000000     23.650000000
| 85>   C       30.760000000     36.150000000     28.020000000
| 86>   C       31.770000000     36.480000000     28.930000000
| 87>   H       32.460000000     37.300000000     28.740000000
| 88>   C       33.770000000     36.670000000     22.520000000
| 89>   H       33.290000000     36.120000000     21.710000000
| 90>   C       32.050000000     35.550000000     29.910000000
| 91>   H       32.970000000     35.670000000     30.490000000
| 92>   N       30.450000000     36.720000000     26.790000000
| 93>   N       33.230000000     38.220000000     25.840000000
| 94>   Zn      31.260000000     38.470000000     26.190000000
| 95> **                         ****END OF INPUT****

CARTESIAN COORDINATES (ANGSTROEM)
---------------------------------
  C     34.610000   27.730000   26.070000
  H     34.680000   27.270000   25.090000
  C     35.180000   28.540000   28.000000
  C     35.820000   29.050000   29.140000
  H     36.880000   29.300000   29.130000
  C     38.130000   30.250000   24.620000
  C     37.280000   29.840000   23.590000
  H     36.600000   28.990000   23.720000
  C     35.010000   29.540000   30.140000
  H     35.480000   30.070000   30.970000
  C     37.040000   30.750000   22.580000
  H     36.150000   30.620000   21.980000
  N     38.440000   29.660000   25.830000
  N     35.700000   28.000000   26.830000
  Zn    37.670000   27.880000   26.400000
  C     29.770000   30.350000   26.420000
  H     29.380000   30.090000   27.400000
  C     30.900000   30.260000   24.570000
  C     31.820000   30.000000   23.540000
  H     32.550000   29.200000   23.610000
  C     33.770000   28.570000   27.880000
  C     32.980000   29.180000   28.850000
  H     31.930000   29.430000   28.670000
  C     31.920000   30.950000   22.540000
  H     32.670000   30.820000   21.760000
  C     33.620000   29.650000   29.970000
  H     33.080000   30.370000   30.590000
  N     33.420000   28.020000   26.660000
  N     30.650000   29.570000   25.740000
  Zn    31.480000   27.780000   26.150000
  C     39.260000   30.550000   26.440000
  H     39.700000   30.370000   27.420000
  C     38.800000   31.500000   24.550000
  C     38.680000   32.320000   23.420000
  H     38.980000   33.370000   23.460000
  C     38.810000   34.880000   27.850000
  C     38.710000   33.900000   28.830000
  H     38.910000   32.850000   28.610000
  C     37.830000   31.900000   22.420000
  H     37.580000   32.590000   21.620000
  C     38.090000   34.260000   30.010000
  H     37.730000   33.440000   30.630000
  N     39.530000   34.900000   26.670000
  N     39.560000   31.640000   25.700000
  Zn    40.640000   33.290000   26.140000
  C     39.130000   36.030000   26.060000
  H     39.510000   36.330000   25.080000
  C     38.100000   36.090000   27.960000
  C     37.410000   36.420000   29.130000
  H     36.650000   37.210000   29.150000
  C     35.100000   37.820000   24.640000
  C     35.850000   37.400000   23.550000
  H     36.930000   37.230000   23.630000
  C     37.500000   35.530000   30.180000
  H     36.830000   35.670000   31.030000
  C     35.160000   36.820000   22.500000
  H     35.730000   36.170000   21.850000
  N     35.500000   38.400000   25.840000
  N     38.310000   36.820000   26.790000
  Zn    37.450000   38.600000   26.380000
  C     29.570000   35.850000   26.230000
  H     29.140000   36.010000   25.240000
  C     30.010000   34.960000   28.160000
  C     30.190000   34.120000   29.280000
  H     29.770000   33.110000   29.300000
  C     30.080000   31.420000   24.550000
  C     30.220000   32.380000   23.550000
  H     29.800000   33.380000   23.650000
  C     31.220000   34.440000   30.140000
  H     31.490000   33.740000   30.930000
  C     31.160000   32.120000   22.560000
  H     31.480000   32.960000   21.960000
  N     29.390000   31.480000   25.770000
  N     29.260000   34.780000   26.990000
  Zn    28.290000   33.080000   26.420000
  C     34.340000   38.610000   26.500000
  H     34.310000   39.100000   27.480000
  C     33.700000   37.660000   24.670000
  C     33.010000   37.090000   23.590000
  H     31.960000   36.820000   23.650000
  C     30.760000   36.150000   28.020000
  C     31.770000   36.480000   28.930000
  H     32.460000   37.300000   28.740000
  C     33.770000   36.670000   22.520000
  H     33.290000   36.120000   21.710000
  C     32.050000   35.550000   29.910000
  H     32.970000   35.670000   30.490000
  N     30.450000   36.720000   26.790000
  N     33.230000   38.220000   25.840000
  Zn    31.260000   38.470000   26.190000

 Total Charge           Charge          ....    0
 Multiplicity           Mult            ....    1
 Number of Electrons    NEL             ....  546
 Basis Dimension        Dim             .... 1404

ORBITAL ENERGIES
----------------

  NO   OCC          E(Eh)            E(eV)
   0   2.0000    -347.266151     -9449.5924
   1   2.0000    -347.262997     -9449.5065
   2   2.0000    -347.260926     -9449.4502
   3   2.0000    -347.260326     -9449.4339
   4   2.0000    -347.257681     -9449.3619
   5   2.0000    -347.256978     -9449.3428
   6   2.0000     -42.208096     -1148.5407
   7   2.0000     -42.205186     -1148.4615
   8   2.0000     -42.203185     -1148.4070
   9   2.0000     -42.202493     -1148.3882
  10   2.0000     -42.199998     -1148.3203
  11   2.0000     -42.199307     -1148.3015
  12   2.0000     -37.189102     -1011.9669
  13   2.0000     -37.186661     -1011.9005
  14   2.0000     -37.186254     -1011.8894
  15   2.0000     -37.184917     -1011.8530
  16   2.0000     -37.184319     -1011.8368
  17   2.0000     -37.183599     -1011.8172
  18   2.0000     -37.183575     -1011.8165
  19   2.0000     -37.182072     -1011.7756
  20   2.0000     -37.181457     -1011.7589
  21   2.0000     -37.181118     -1011.7497
  22   2.0000     -37.180791     -1011.7408
  23   2.0000     -37.180425     -1011.7308
  24   2.0000     -37.180104     -1011.7221
  25   2.0000     -37.179430     -1011.7037
  26   2.0000     -37.178179     -1011.6697
  27   2.0000     -37.177463     -1011.6502
  28   2.0000     -37.176997     -1011.6375
  29   2.0000     -37.176327     -1011.6193
  30   2.0000     -14.353487      -390.5782
  31   2.0000     -14.353296      -390.5730
  32   2.0000     -14.352872      -390.5615
  33   2.0000     -14.351955      -390.5365
  34   2.0000     -14.351701      -390.5296
  35   2.0000     -14.351293      -390.5185
  36   2.0000     -14.350806      -390.5053
  37   2.0000     -14.350633      -390.5006
  38   2.0000     -14.349714      -390.4756
  39   2.0000     -14.349192      -390.4614
  40   2.0000     -14.348756      -390.4495
  41   2.0000     -14.347967      -390.4280
  42   2.0000     -10.259113      -279.1647
  43   2.0000     -10.258821      -279.1567
  44   2.0000     -10.258524      -279.1486
  45   2.0000     -10.257856      -279.1305
  46   2.0000     -10.257059      -279.1088
  47   2.0000     -10.256205      -279.0855
  48   2.0000     -10.218790      -278.0674
  49   2.0000     -10.218269      -278.0532
  50   2.0000     -10.217798      -278.0404
  51   2.0000     -10.217586      -278.0346
  52   2.0000     -10.216937      -278.0170
  53   2.0000     -10.216661      -278.0095
  54   2.0000     -10.215754      -277.9848
  55   2.0000     -10.215528      -277.9786
  56   2.0000     -10.214473      -277.9499
  57   2.0000     -10.214248      -277.9438
  58   2.0000     -10.214243      -277.9437
  59   2.0000     -10.213248      -277.9166
  60   2.0000     -10.191862      -277.3347
  61   2.0000     -10.190786      -277.3054
  62   2.0000     -10.190514      -277.2980
  63   2.0000     -10.190219      -277.2899
  64   2.0000     -10.190201      -277.2895
  65   2.0000     -10.189709      -277.2761
  66   2.0000     -10.189523      -277.2710
  67   2.0000     -10.188821      -277.2519
  68   2.0000     -10.188311      -277.2380
  69   2.0000     -10.187484      -277.2155
  70   2.0000     -10.187178      -277.2072
  71   2.0000     -10.186872      -277.1989
  72   2.0000     -10.185448      -277.1601
  73   2.0000     -10.184786      -277.1421
  74   2.0000     -10.184272      -277.1281
  75   2.0000     -10.184195      -277.1260
  76   2.0000     -10.184075      -277.1228
  77   2.0000     -10.183686      -277.1122
  78   2.0000     -10.183549      -277.1085
  79   2.0000     -10.183142      -277.0974
  80   2.0000     -10.182214      -277.0721
  81   2.0000     -10.181879      -277.0630
  82   2.0000     -10.181550      -277.0541
  83   2.0000     -10.179712      -277.0040
  84   2.0000      -4.824849      -131.2908
  85   2.0000      -4.822100      -131.2160
  86   2.0000      -4.820119      -131.1621
  87   2.0000      -4.819405      -131.1427
  88   2.0000      -4.816947      -131.0758
  89   2.0000      -4.816258      -131.0570
  90   2.0000      -3.219480       -87.6065
  91   2.0000      -3.216772       -87.5328
  92   2.0000      -3.214922       -87.4825
  93   2.0000      -3.214524       -87.4716
  94   2.0000      -3.214169       -87.4620
  95   2.0000      -3.212803       -87.4248
  96   2.0000      -3.211696       -87.3947
  97   2.0000      -3.211588       -87.3917
  98   2.0000      -3.211010       -87.3760
  99   2.0000      -3.210244       -87.3552
 100   2.0000      -3.209414       -87.3326
 101   2.0000      -3.208751       -87.3146
 102   2.0000      -3.208322       -87.3029
 103   2.0000      -3.207594       -87.2831
 104   2.0000      -3.206145       -87.2436
 105   2.0000      -3.205428       -87.2241
 106   2.0000      -3.205284       -87.2202
 107   2.0000      -3.204623       -87.2022
 108   2.0000      -1.024584       -27.8804
 109   2.0000      -1.023993       -27.8643
 110   2.0000      -1.022560       -27.8253
 111   2.0000      -1.019880       -27.7523
 112   2.0000      -1.019778       -27.7496
 113   2.0000      -1.019008       -27.7286
 114   2.0000      -0.886702       -24.1284
 115   2.0000      -0.885020       -24.0826
 116   2.0000      -0.883599       -24.0439
 117   2.0000      -0.883158       -24.0320
 118   2.0000      -0.881967       -23.9995
 119   2.0000      -0.881148       -23.9773
 120   2.0000      -0.861878       -23.4529
 121   2.0000      -0.861473       -23.4419
 122   2.0000      -0.860462       -23.4144
 123   2.0000      -0.860382       -23.4122
 124   2.0000      -0.860034       -23.4027
 125   2.0000      -0.859726       -23.3943
 126   2.0000      -0.759511       -20.6674
 127   2.0000      -0.759245       -20.6601
 128   2.0000      -0.758524       -20.6405
 129   2.0000      -0.758339       -20.6355
 130   2.0000      -0.757979       -20.6257
 131   2.0000      -0.757643       -20.6165
 132   2.0000      -0.750600       -20.4249
 133   2.0000      -0.750053       -20.4100
 134   2.0000      -0.749641       -20.3988
 135   2.0000      -0.749428       -20.3930
 136   2.0000      -0.749119       -20.3846
 137   2.0000      -0.748341       -20.3634
 138   2.0000      -0.644815       -17.5463
 139   2.0000      -0.644404       -17.5351
 140   2.0000      -0.643166       -17.5014
 141   2.0000      -0.642671       -17.4880
 142   2.0000      -0.642155       -17.4739
 143   2.0000      -0.641860       -17.4659
 144   2.0000      -0.616667       -16.7804
 145   2.0000      -0.615934       -16.7604
 146   2.0000      -0.614634       -16.7250
 147   2.0000      -0.614404       -16.7188
 148   2.0000      -0.614001       -16.7078
 149   2.0000      -0.613953       -16.7065
 150   2.0000      -0.608218       -16.5505
 151   2.0000      -0.607042       -16.5184
 152   2.0000      -0.606708       -16.5094
 153   2.0000      -0.605445       -16.4750
 154   2.0000      -0.604764       -16.4565
 155   2.0000      -0.604058       -16.4372
 156   2.0000      -0.540045       -14.6954
 157   2.0000      -0.539809       -14.6890
 158   2.0000      -0.539320       -14.6757
 159   2.0000      -0.538525       -14.6540
 160   2.0000      -0.538221       -14.6457
 161   2.0000      -0.537736       -14.6325
 162   2.0000      -0.517032       -14.0691
 163   2.0000      -0.515046       -14.0151
 164   2.0000      -0.514337       -13.9958
 165   2.0000      -0.513202       -13.9649
 166   2.0000      -0.511892       -13.9293
 167   2.0000      -0.511121       -13.9083
 168   2.0000      -0.503367       -13.6973
 169   2.0000      -0.503180       -13.6922
 170   2.0000      -0.502756       -13.6807
 171   2.0000      -0.502637       -13.6774
 172   2.0000      -0.500860       -13.6291
 173   2.0000      -0.500025       -13.6064
 174   2.0000      -0.499794       -13.6001
 175   2.0000      -0.499169       -13.5831
 176   2.0000      -0.498542       -13.5660
 177   2.0000      -0.497919       -13.5491
 178   2.0000      -0.497503       -13.5377
 179   2.0000      -0.496743       -13.5171
 180   2.0000      -0.496098       -13.4995
 181   2.0000      -0.495727       -13.4894
 182   2.0000      -0.494476       -13.4554
 183   2.0000      -0.493199       -13.4206
 184   2.0000      -0.492532       -13.4025
 185   2.0000      -0.492201       -13.3935
 186   2.0000      -0.492069       -13.3899
 187   2.0000      -0.491274       -13.3682
 188   2.0000      -0.490478       -13.3466
 189   2.0000      -0.489876       -13.3302
 190   2.0000      -0.489752       -13.3268
 191   2.0000      -0.489297       -13.3144
 192   2.0000      -0.488139       -13.2829
 193   2.0000      -0.487472       -13.2648
 194   2.0000      -0.487084       -13.2542
 195   2.0000      -0.486458       -13.2372
 196   2.0000      -0.484337       -13.1795
 197   2.0000      -0.483756       -13.1637
 198   2.0000      -0.482908       -13.1406
 199   2.0000      -0.481425       -13.1002
 200   2.0000      -0.481011       -13.0890
 201   2.0000      -0.478813       -13.0292
 202   2.0000      -0.476584       -12.9685
 203   2.0000      -0.475862       -12.9489
 204   2.0000      -0.458113       -12.4659
 205   2.0000      -0.457603       -12.4520
 206   2.0000      -0.456456       -12.4208
 207   2.0000      -0.456259       -12.4154
 208   2.0000      -0.455373       -12.3913
 209   2.0000      -0.454757       -12.3746
 210   2.0000      -0.451181       -12.2773
 211   2.0000      -0.450729       -12.2650
 212   2.0000      -0.449732       -12.2378
 213   2.0000      -0.449190       -12.2231
 214   2.0000      -0.448995       -12.2178
 215   2.0000      -0.448755       -12.2112
 216   2.0000      -0.433967       -11.8088
 217   2.0000      -0.432998       -11.7825
 218   2.0000      -0.432173       -11.7600
 219   2.0000      -0.431737       -11.7482
 220   2.0000      -0.430830       -11.7235
 221   2.0000      -0.430081       -11.7031
 222   2.0000      -0.405243       -11.0272
 223   2.0000      -0.404891       -11.0176
 224   2.0000      -0.403613       -10.9829
 225   2.0000      -0.402912       -10.9638
 226   2.0000      -0.401935       -10.9372
 227   2.0000      -0.397288       -10.8108
 228   2.0000      -0.395071       -10.7504
 229   2.0000      -0.385999       -10.5036
 230   2.0000      -0.382980       -10.4214
 231   2.0000      -0.382276       -10.4023
 232   2.0000      -0.381346       -10.3770
 233   2.0000      -0.380949       -10.3662
 234   2.0000      -0.380352       -10.3499
 235   2.0000      -0.379515       -10.3271
 236   2.0000      -0.379243       -10.3197
 237   2.0000      -0.365874        -9.9559
 238   2.0000      -0.365004        -9.9323
 239   2.0000      -0.360466        -9.8088
 240   2.0000      -0.357852        -9.7376
 241   2.0000      -0.357185        -9.7195
 242   2.0000      -0.356890        -9.7115
 243   2.0000      -0.355272        -9.6674
 244   2.0000      -0.354420        -9.6442
 245   2.0000      -0.353616        -9.6224
 246   2.0000      -0.342531        -9.3207
 247   2.0000      -0.341968        -9.3054
 248   2.0000      -0.339387        -9.2352
 249   2.0000      -0.338014        -9.1978
 250   2.0000      -0.337386        -9.1807
 251   2.0000      -0.335775        -9.1369
 252   2.0000      -0.327847        -8.9212
 253   2.0000      -0.325248        -8.8504
 254   2.0000      -0.324450        -8.8287
 255   2.0000      -0.318748        -8.6736
 256   2.0000      -0.316518        -8.6129
 257   2.0000      -0.314036        -8.5454
 258   2.0000      -0.247587        -6.7372
 259   2.0000      -0.247267        -6.7285
 260   2.0000      -0.246388        -6.7046
 261   2.0000      -0.246278        -6.7016
 262   2.0000      -0.245911        -6.6916
 263   2.0000      -0.245511        -6.6807
 264   2.0000      -0.245271        -6.6742
 265   2.0000      -0.244806        -6.6615
 266   2.0000      -0.243645        -6.6299
 267   2.0000      -0.243419        -6.6238
 268   2.0000      -0.243111        -6.6154
 269   2.0000      -0.242861        -6.6086
 270   2.0000      -0.140958        -3.8357
 271   2.0000      -0.134999        -3.6735
 272   2.0000      -0.134526        -3.6606
 273   0.0000      -0.114403        -3.1131
 274   0.0000      -0.113961        -3.1010
 275   0.0000      -0.107603        -2.9280
 276   0.0000      -0.047745        -1.2992
 277   0.0000      -0.044850        -1.2204

MULLIKEN ATOMIC CHARGES
-----------------------
   0 C :   -0.025201
   1 H :    0.127053
   2 C :    0.036769
   3 C :   -0.100254
   4 H :    0.111891
   5 C :    0.065207
   6 C :   -0.138624
   7 H :    0.079413
   8 C :   -0.141054
   9 H :    0.105115
  10 C :   -0.076614
  11 H :    0.130424
  12 N :   -0.163797
  13 N :   -0.169297
  14 Zn:    0.178264
  15 C :   -0.013305
  16 H :    0.125261
  17 C :    0.065768
  18 C :   -0.108771
  19 H :    0.110896
  20 C :    0.037089
  21 C :   -0.098260
  22 H :    0.110198
  23 C :   -0.137400
  24 H :    0.113719
  25 C :   -0.115917
  26 H :    0.106058
  27 N :   -0.166268
  28 N :   -0.169141
  29 Zn:    0.166264
  30 C :   -0.021631
  31 H :    0.128251
  32 C :    0.027670
  33 C :   -0.055095
  34 H :    0.112831
  35 C :    0.030394
  36 C :   -0.094133
  37 H :    0.117508
  38 C :   -0.188063
  39 H :    0.101503
  40 C :   -0.126150
  41 H :    0.106849
  42 N :   -0.177300
  43 N :   -0.178615
  44 Zn:    0.195326
  45 C :   -0.018742
  46 H :    0.123405
  47 C :    0.039992
  48 C :   -0.112672
  49 H :    0.116730
  50 C :    0.012757
  51 C :   -0.086686
  52 H :    0.099762
  53 C :   -0.127511
  54 H :    0.103114
  55 C :   -0.120959
  56 H :    0.102891
  57 N :   -0.168052
  58 N :   -0.166324
  59 Zn:    0.183300
  60 C :   -0.016199
  61 H :    0.124227
  62 C :    0.064462
  63 C :   -0.103672
  64 H :    0.096788
  65 C :    0.016891
  66 C :   -0.085084
  67 H :    0.108980
  68 C :   -0.145876
  69 H :    0.110487
  70 C :   -0.132216
  71 H :    0.106363
  72 N :   -0.182926
  73 N :   -0.182906
  74 Zn:    0.206401
  75 C :   -0.020715
  76 H :    0.123498
  77 C :    0.066221
  78 C :   -0.110121
  79 H :    0.113122
  80 C :    0.051760
  81 C :   -0.111336
  82 H :    0.092138
  83 C :   -0.140616
  84 H :    0.111704
  85 C :   -0.115670
  86 H :    0.119426
  87 N :   -0.162363
  88 N :   -0.170482
  89 Zn:    0.161880
Sum of atomic charges:    0.0000000

LOEWDIN ATOMIC CHARGES
----------------------
   0 C :    0.034507
   1 H :    0.070512
   2 C :   -0.029207
   3 C :   -0.085306
   4 H :    0.077010
   5 C :   -0.028181
   6 C :   -0.088522
   7 H :    0.074641
   8 C :   -0.082572
   9 H :    0.078416
  10 C :   -0.077621
  11 H :    0.077909
  12 N :   -0.239437
  13 N :   -0.239674
  14 Zn:    0.462563
  15 C :    0.034997
  16 H :    0.070697
  17 C :   -0.027666
  18 C :   -0.084196
  19 H :    0.075857
  20 C :   -0.031580
  21 C :   -0.088684
  22 H :    0.076697
  23 C :   -0.080946
  24 H :    0.078138
  25 C :   -0.085083
  26 H :    0.079981
  27 N :   -0.240330
  28 N :   -0.240342
  29 Zn:    0.450424
  30 C :    0.031229
  31 H :    0.072002
  32 C :   -0.032847
  33 C :   -0.083713
  34 H :    0.078337
  35 C :   -0.035244
  36 C :   -0.093593
  37 H :    0.076273
  38 C :   -0.082442
  39 H :    0.077615
  40 C :   -0.083579
  41 H :    0.080358
  42 N :   -0.238803
  43 N :   -0.239046
  44 Zn:    0.475902
  45 C :    0.034507
  46 H :    0.071986
  47 C :   -0.030293
  48 C :   -0.084337
  49 H :    0.078720
  50 C :   -0.031029
  51 C :   -0.086445
  52 H :    0.076203
  53 C :   -0.080703
  54 H :    0.078680
  55 C :   -0.086656
  56 H :    0.077968
  57 N :   -0.241668
  58 N :   -0.240626
  59 Zn:    0.462948
  60 C :    0.031757
  61 H :    0.071140
  62 C :   -0.026930
  63 C :   -0.083034
  64 H :    0.077582
  65 C :   -0.026775
  66 C :   -0.083111
  67 H :    0.074842
  68 C :   -0.084044
  69 H :    0.078580
  70 C :   -0.085145
  71 H :    0.077530
  72 N :   -0.248442
  73 N :   -0.245675
  74 Zn:    0.488189
  75 C :    0.031180
  76 H :    0.072365
  77 C :   -0.030522
  78 C :   -0.085625
  79 H :    0.075486
  80 C :   -0.028186
  81 C :   -0.082894
  82 H :    0.075470
  83 C :   -0.081435
  84 H :    0.077821
  85 C :   -0.081019
  86 H :    0.079743
  87 N :   -0.243601
  88 N :   -0.238311
  89 Zn:    0.448366

  Mayer bond orders larger than 0.100000
B(  0-C ,  1-H ) :   0.9507 B(  0-C , 13-N ) :   1.4266 B(  0-C , 27-N ) :   1.4285
B(  2-C ,  3-C ) :   1.3106 B(  2-C , 13-N ) :   1.1717 B(  2-C , 20-C ) :   1.4205
B(  3-C ,  4-H ) :   0.9241 B(  3-C ,  8-C ) :   1.5149 B(  5-C ,  6-C ) :   1.3060
B(  5-C , 12-N ) :   1.1901 B(  5-C , 32-C ) :   1.4100 B(  6-C ,  7-H ) :   0.9571
B(  6-C , 10-C ) :   1.5030 B(  8-C ,  9-H ) :   0.9554 B(  8-C , 25-C ) :   1.3672
B( 10-C , 11-H ) :   0.9339 B( 10-C , 38-C ) :   1.3612 B( 12-N , 14-Zn) :   0.4099
B( 12-N , 30-C ) :   1.4283 B( 13-N , 14-Zn) :   0.4182 B( 14-Zn, 29-Zn) :   0.3921
B( 14-Zn, 44-Zn) :   0.3789 B( 14-Zn, 89-Zn) :   0.1068 B( 15-C , 16-H ) :   0.9497
B( 15-C , 28-N ) :   1.4205 B( 15-C , 72-N ) :   1.4388 B( 17-C , 18-C ) :   1.3188
B( 17-C , 28-N ) :   1.1541 B( 17-C , 65-C ) :   1.3808 B( 18-C , 19-H ) :   0.9289
B( 18-C , 23-C ) :   1.5006 B( 20-C , 21-C ) :   1.3210 B( 20-C , 27-N ) :   1.1683
B( 21-C , 22-H ) :   0.9127 B( 21-C , 25-C ) :   1.5319 B( 23-C , 24-H ) :   0.9490
B( 23-C , 70-C ) :   1.3859 B( 25-C , 26-H ) :   0.9518 B( 27-N , 29-Zn) :   0.4005
B( 28-N , 29-Zn) :   0.4060 B( 29-Zn, 74-Zn) :   0.3867 B( 30-C , 31-H ) :   0.9491
B( 30-C , 43-N ) :   1.4297 B( 32-C , 33-C ) :   1.3331 B( 32-C , 43-N ) :   1.1614
B( 33-C , 34-H ) :   0.9158 B( 33-C , 38-C ) :   1.5182 B( 35-C , 36-C ) :   1.3071
B( 35-C , 42-N ) :   1.1542 B( 35-C , 47-C ) :   1.4327 B( 36-C , 37-H ) :   0.9052
B( 36-C , 40-C ) :   1.5347 B( 38-C , 39-H ) :   0.9685 B( 40-C , 41-H ) :   0.9499
B( 40-C , 53-C ) :   1.3582 B( 42-N , 44-Zn) :   0.4162 B( 42-N , 45-C ) :   1.4379
B( 43-N , 44-Zn) :   0.4223 B( 44-Zn, 59-Zn) :   0.3930 B( 44-Zn, 74-Zn) :   0.1020
B( 45-C , 46-H ) :   0.9506 B( 45-C , 58-N ) :   1.4329 B( 47-C , 48-C ) :   1.3071
B( 47-C , 58-N ) :   1.1731 B( 48-C , 49-H ) :   0.9160 B( 48-C , 53-C ) :   1.5327
B( 50-C , 51-C ) :   1.3304 B( 50-C , 57-N ) :   1.1732 B( 50-C , 77-C ) :   1.4147
B( 51-C , 52-H ) :   0.9278 B( 51-C , 55-C ) :   1.5208 B( 53-C , 54-H ) :   0.9583
B( 55-C , 56-H ) :   0.9546 B( 55-C , 83-C ) :   1.3706 B( 57-N , 59-Zn) :   0.4091
B( 57-N , 75-C ) :   1.4399 B( 58-N , 59-Zn) :   0.4122 B( 59-Zn, 89-Zn) :   0.3834
B( 60-C , 61-H ) :   0.9488 B( 60-C , 73-N ) :   1.4399 B( 60-C , 87-N ) :   1.4369
B( 62-C , 63-C ) :   1.3179 B( 62-C , 73-N ) :   1.1571 B( 62-C , 80-C ) :   1.3891
B( 63-C , 64-H ) :   0.9537 B( 63-C , 68-C ) :   1.4926 B( 65-C , 66-C ) :   1.3334
B( 65-C , 72-N ) :   1.1692 B( 66-C , 67-H ) :   0.9259 B( 66-C , 70-C ) :   1.5026
B( 68-C , 69-H ) :   0.9603 B( 68-C , 85-C ) :   1.3610 B( 70-C , 71-H ) :   0.9609
B( 72-N , 74-Zn) :   0.4019 B( 73-N , 74-Zn) :   0.4180 B( 74-Zn, 89-Zn) :   0.3844
B( 75-C , 76-H ) :   0.9508 B( 75-C , 88-N ) :   1.4236 B( 77-C , 78-C ) :   1.3102
B( 77-C , 88-N ) :   1.1682 B( 78-C , 79-H ) :   0.9224 B( 78-C , 83-C ) :   1.5221
B( 80-C , 81-C ) :   1.3134 B( 80-C , 87-N ) :   1.1689 B( 81-C , 82-H ) :   0.9438
B( 81-C , 85-C ) :   1.5194 B( 83-C , 84-H ) :   0.9515 B( 85-C , 86-H ) :   0.9464
B( 87-N , 89-Zn) :   0.3959 B( 88-N , 89-Zn) :   0.4092

FINAL SINGLE POINT ENERGY    -12950.822033957747

DIPOLE MOMENT
-------------
                                X             Y             Z
Electronic contribution:     -0.69373      -0.09229      -0.15692
Nuclear contribution   :      0.63835       0.09174       0.15015
                        -----------------------------------------
Total Dipole Moment    :     -0.05539      -0.00056      -0.00677
                        -----------------------------------------
Magnitude (a.u.)       :      0.05580
Magnitude (Debye)      :      0.14184

Rotational constants in cm-1:     0.000889     0.000883     0.000559
Rotational constants in MHz :    26.658926    26.475714    16.748536

                             ****ORCA TERMINATED NORMALLY****
TOTAL RUN TIME: 0 days 6 hours 10 minutes 18 seconds 826 msec
