                         Program Version 5.0.3 -  RELEASE  -
|  1> ! DFT B3LYP TZVP def2/J RIJCOSX
|  2> %maxcore 8000
|  3>
|  4> * xyz 0 1
|  5>   C       42.840000000     19.620000000      7.700000000
|  6>   H       43.890000000     19.860000000      7.850000000
|  7>   C       40.890000000     19.490000000      6.760000000
|  8>   C       39.720000000     19.760000000      6.040000000
|  9>   H       39.750000000     20.250000000      5.070000000
| 10>   C       38.520000000     19.650000000      6.720000000
| 11>   H       37.600000000     19.970000000      6.240000000
| 12>   C       38.460000000     19.080000000      8.010000000
| 13>   H       37.480000000     18.930000000      8.470000000
| 14>   C       41.110000000     23.540000000      5.060000000
| 15>   H       40.410000000     23.040000000      5.720000000
| 16>   C       42.760000000     23.810000000      3.680000000
| 17>   C       43.720000000     23.620000000      2.670000000
| 18>   H       44.300000000     22.700000000      2.580000000
| 19>   C       45.290000000     22.290000000      6.770000000
| 20>   C       44.530000000     22.930000000      7.750000000
| 21>   H       43.470000000     22.740000000      7.860000000
| 22>   C       43.870000000     24.640000000      1.750000000
| 23>   H       44.590000000     24.520000000      0.940000000
| 24>   C       45.210000000     23.650000000      8.720000000
| 25>   H       44.640000000     24.210000000      9.460000000
| 26>   N       42.180000000     19.980000000      6.570000000
| 27>   N       44.910000000     21.470000000      5.710000000
| 28>   N       42.180000000     22.890000000      4.560000000
| 29>   Zn      43.010000000     21.120000000      5.120000000
| 30>   C       37.440000000     25.590000000      6.960000000
| 31>   C       37.100000000     24.400000000      6.290000000
| 32>   H       37.670000000     24.050000000      5.430000000
| 33>   C       42.150000000     28.040000000      6.690000000
| 34>   C       42.620000000     27.070000000      7.570000000
| 35>   H       42.760000000     26.050000000      7.230000000
| 36>   C       42.040000000     25.030000000      3.780000000
| 37>   C       42.310000000     26.100000000      2.910000000
| 38>   H       41.760000000     27.040000000      2.970000000
| 39>   C       43.360000000     27.530000000      8.650000000
| 40>   H       43.660000000     26.820000000      9.420000000
| 41>   C       43.200000000     25.870000000      1.880000000
| 42>   H       43.470000000     26.700000000      1.230000000
| 43>   N       41.000000000     24.840000000      4.690000000
| 44>   N       38.550000000     26.410000000      6.800000000
| 45>   N       41.170000000     27.980000000      5.700000000
| 46>   Zn      39.900000000     26.460000000      5.300000000
| 47>   C       38.550000000     27.210000000      7.880000000
| 48>   C       36.800000000     25.950000000      8.190000000
| 49>   C       36.270000000     23.520000000      6.960000000
| 50>   C       40.820000000     18.910000000      8.070000000
| 51>   C       39.580000000     18.610000000      8.660000000
| 52>   N       42.090000000     19.010000000      8.650000000
| 53>   C       42.070000000     19.090000000     13.210000000
| 54>   H       41.350000000     18.270000000     13.130000000
| 55>   C       43.640000000     20.490000000     12.670000000
| 56>   C       44.320000000     21.460000000     11.930000000
| 57>   H       44.350000000     21.430000000     10.840000000
| 58>   C       44.590000000     22.660000000     12.560000000
| 59>   H       44.920000000     23.500000000     11.960000000
| 60>   C       44.300000000     22.870000000     13.920000000
| 61>   H       44.520000000     23.850000000     14.350000000
| 62>   H       39.510000000     18.280000000      9.690000000
| 63>   N       42.930000000     19.380000000     12.210000000
| 64>   Zn      42.940000000     18.420000000     10.410000000
| 65>   C       43.150000000     20.800000000     13.990000000
| 66>   C       43.520000000     21.980000000     14.640000000
| 67>   N       42.100000000     19.920000000     14.270000000
| 68>   H       39.320000000     27.960000000      8.040000000
| 69>   C       35.880000000     25.080000000      8.790000000
| 70>   H       35.570000000     25.220000000      9.830000000
| 71>   C       35.720000000     23.830000000      8.210000000
| 72>   H       35.280000000     23.030000000      8.810000000
| 73>   H       36.140000000     22.510000000      6.570000000
| 74>   C       39.580000000     27.500000000     12.920000000
| 75>   C       40.800000000     27.930000000     12.380000000
| 76>   H       40.910000000     28.130000000     11.310000000
| 77>   N       37.560000000     26.990000000      8.770000000
| 78>   N       38.320000000     27.370000000     12.330000000
| 79>   Zn      37.520000000     27.990000000     10.560000000
| 80>   C       37.600000000     26.700000000     13.250000000
| 81>   C       39.520000000     26.910000000     14.220000000
| 82>   C       41.930000000     27.740000000     13.150000000
| 83>   H       42.980000000     22.340000000     15.520000000
| 84>   C       38.450000000     18.420000000     14.200000000
| 85>   C       38.120000000     19.380000000     13.230000000
| 86>   H       38.370000000     20.430000000     13.370000000
| 87>   C       38.470000000     21.350000000     17.310000000
| 88>   C       38.210000000     20.310000000     18.210000000
| 89>   H       38.730000000     19.350000000     18.150000000
| 90>   C       37.190000000     19.000000000     12.270000000
| 91>   H       36.930000000     19.710000000     11.480000000
| 92>   C       37.270000000     20.550000000     19.200000000
| 93>   H       36.970000000     19.720000000     19.840000000
| 94>   N       39.360000000     21.430000000     16.240000000
| 95>   N       39.400000000     18.440000000     15.220000000
| 96>   Zn      40.650000000     19.930000000     15.690000000
| 97>   H       36.560000000     26.420000000     13.090000000
| 98>   C       40.670000000     26.800000000     15.020000000
| 99>   H       40.670000000     26.230000000     15.950000000
|100>   C       41.870000000     27.180000000     14.440000000
|101>   H       42.810000000     26.920000000     14.930000000
|102>   H       42.910000000     27.860000000     12.690000000
|103>   C       39.130000000     22.650000000     15.720000000
|104>   H       39.630000000     23.000000000     14.850000000
|105>   C       37.760000000     22.580000000     17.390000000
|106>   C       36.840000000     22.820000000     18.420000000
|107>   H       36.240000000     23.730000000     18.470000000
|108>   C       35.090000000     23.990000000     14.350000000
|109>   C       35.790000000     23.070000000     13.570000000
|110>   H       36.690000000     22.580000000     13.950000000
|111>   C       36.620000000     21.790000000     19.320000000
|112>   H       35.900000000     21.930000000     20.130000000
|113>   C       35.130000000     22.550000000     12.470000000
|114>   H       35.650000000     21.830000000     11.830000000
|115>   N       38.260000000     26.330000000     14.370000000
|116>   N       35.520000000     24.850000000     15.370000000
|117>   N       38.200000000     23.400000000     16.350000000
|118>   Zn      37.440000000     25.230000000     15.880000000
|119> **                         ****END OF INPUT****

CARTESIAN COORDINATES (ANGSTROEM)
---------------------------------
  C     42.840000   19.620000    7.700000
  H     43.890000   19.860000    7.850000
  C     40.890000   19.490000    6.760000
  C     39.720000   19.760000    6.040000
  H     39.750000   20.250000    5.070000
  C     38.520000   19.650000    6.720000
  H     37.600000   19.970000    6.240000
  C     38.460000   19.080000    8.010000
  H     37.480000   18.930000    8.470000
  C     41.110000   23.540000    5.060000
  H     40.410000   23.040000    5.720000
  C     42.760000   23.810000    3.680000
  C     43.720000   23.620000    2.670000
  H     44.300000   22.700000    2.580000
  C     45.290000   22.290000    6.770000
  C     44.530000   22.930000    7.750000
  H     43.470000   22.740000    7.860000
  C     43.870000   24.640000    1.750000
  H     44.590000   24.520000    0.940000
  C     45.210000   23.650000    8.720000
  H     44.640000   24.210000    9.460000
  N     42.180000   19.980000    6.570000
  N     44.910000   21.470000    5.710000
  N     42.180000   22.890000    4.560000
  Zn    43.010000   21.120000    5.120000
  C     37.440000   25.590000    6.960000
  C     37.100000   24.400000    6.290000
  H     37.670000   24.050000    5.430000
  C     42.150000   28.040000    6.690000
  C     42.620000   27.070000    7.570000
  H     42.760000   26.050000    7.230000
  C     42.040000   25.030000    3.780000
  C     42.310000   26.100000    2.910000
  H     41.760000   27.040000    2.970000
  C     43.360000   27.530000    8.650000
  H     43.660000   26.820000    9.420000
  C     43.200000   25.870000    1.880000
  H     43.470000   26.700000    1.230000
  N     41.000000   24.840000    4.690000
  N     38.550000   26.410000    6.800000
  N     41.170000   27.980000    5.700000
  Zn    39.900000   26.460000    5.300000
  C     38.550000   27.210000    7.880000
  C     36.800000   25.950000    8.190000
  C     36.270000   23.520000    6.960000
  C     40.820000   18.910000    8.070000
  C     39.580000   18.610000    8.660000
  N     42.090000   19.010000    8.650000
  C     42.070000   19.090000   13.210000
  H     41.350000   18.270000   13.130000
  C     43.640000   20.490000   12.670000
  C     44.320000   21.460000   11.930000
  H     44.350000   21.430000   10.840000
  C     44.590000   22.660000   12.560000
  H     44.920000   23.500000   11.960000
  C     44.300000   22.870000   13.920000
  H     44.520000   23.850000   14.350000
  H     39.510000   18.280000    9.690000
  N     42.930000   19.380000   12.210000
  Zn    42.940000   18.420000   10.410000
  C     43.150000   20.800000   13.990000
  C     43.520000   21.980000   14.640000
  N     42.100000   19.920000   14.270000
  H     39.320000   27.960000    8.040000
  C     35.880000   25.080000    8.790000
  H     35.570000   25.220000    9.830000
  C     35.720000   23.830000    8.210000
  H     35.280000   23.030000    8.810000
  H     36.140000   22.510000    6.570000
  C     39.580000   27.500000   12.920000
  C     40.800000   27.930000   12.380000
  H     40.910000   28.130000   11.310000
  N     37.560000   26.990000    8.770000
  N     38.320000   27.370000   12.330000
  Zn    37.520000   27.990000   10.560000
  C     37.600000   26.700000   13.250000
  C     39.520000   26.910000   14.220000
  C     41.930000   27.740000   13.150000
  H     42.980000   22.340000   15.520000
  C     38.450000   18.420000   14.200000
  C     38.120000   19.380000   13.230000
  H     38.370000   20.430000   13.370000
  C     38.470000   21.350000   17.310000
  C     38.210000   20.310000   18.210000
  H     38.730000   19.350000   18.150000
  C     37.190000   19.000000   12.270000
  H     36.930000   19.710000   11.480000
  C     37.270000   20.550000   19.200000
  H     36.970000   19.720000   19.840000
  N     39.360000   21.430000   16.240000
  N     39.400000   18.440000   15.220000
  Zn    40.650000   19.930000   15.690000
  H     36.560000   26.420000   13.090000
  C     40.670000   26.800000   15.020000
  H     40.670000   26.230000   15.950000
  C     41.870000   27.180000   14.440000
  H     42.810000   26.920000   14.930000
  H     42.910000   27.860000   12.690000
  C     39.130000   22.650000   15.720000
  H     39.630000   23.000000   14.850000
  C     37.760000   22.580000   17.390000
  C     36.840000   22.820000   18.420000
  H     36.240000   23.730000   18.470000
  C     35.090000   23.990000   14.350000
  C     35.790000   23.070000   13.570000
  H     36.690000   22.580000   13.950000
  C     36.620000   21.790000   19.320000
  H     35.900000   21.930000   20.130000
  C     35.130000   22.550000   12.470000
  H     35.650000   21.830000   11.830000
  N     38.260000   26.330000   14.370000
  N     35.520000   24.850000   15.370000
  N     38.200000   23.400000   16.350000
  Zn    37.440000   25.230000   15.880000

 Total Charge           Charge          ....    0
 Multiplicity           Mult            ....    1
 Number of Electrons    NEL             ....  654
 Basis Dimension        Dim             .... 1756

ORBITAL ENERGIES
----------------

  NO   OCC          E(Eh)            E(eV)
   0   2.0000    -347.323303     -9451.1476
   1   2.0000    -347.318222     -9451.0093
   2   2.0000    -347.316142     -9450.9527
   3   2.0000    -347.315614     -9450.9383
   4   2.0000    -347.293338     -9450.3322
   5   2.0000    -347.292352     -9450.3053
   6   2.0000     -42.263846     -1150.0577
   7   2.0000     -42.258767     -1149.9195
   8   2.0000     -42.256701     -1149.8633
   9   2.0000     -42.256377     -1149.8545
  10   2.0000     -42.234814     -1149.2677
  11   2.0000     -42.233712     -1149.2377
  12   2.0000     -37.245859     -1013.5113
  13   2.0000     -37.242172     -1013.4110
  14   2.0000     -37.240754     -1013.3724
  15   2.0000     -37.240456     -1013.3643
  16   2.0000     -37.238435     -1013.3093
  17   2.0000     -37.238267     -1013.3047
  18   2.0000     -37.236868     -1013.2667
  19   2.0000     -37.235625     -1013.2329
  20   2.0000     -37.234888     -1013.2128
  21   2.0000     -37.234462     -1013.2012
  22   2.0000     -37.233683     -1013.1800
  23   2.0000     -37.233285     -1013.1692
  24   2.0000     -37.215886     -1012.6957
  25   2.0000     -37.214827     -1012.6669
  26   2.0000     -37.213650     -1012.6349
  27   2.0000     -37.212491     -1012.6034
  28   2.0000     -37.211415     -1012.5741
  29   2.0000     -37.210347     -1012.5450
  30   2.0000     -14.386011      -391.4633
  31   2.0000     -14.384936      -391.4340
  32   2.0000     -14.383891      -391.4056
  33   2.0000     -14.382985      -391.3809
  34   2.0000     -14.381218      -391.3328
  35   2.0000     -14.380312      -391.3082
  36   2.0000     -14.376329      -391.1998
  37   2.0000     -14.375708      -391.1829
  38   2.0000     -14.373739      -391.1293
  39   2.0000     -14.371021      -391.0554
  40   2.0000     -14.370835      -391.0503
  41   2.0000     -14.370120      -391.0308
  42   2.0000     -14.344036      -390.3211
  43   2.0000     -14.341803      -390.2603
  44   2.0000     -14.341267      -390.2457
  45   2.0000     -14.340772      -390.2323
  46   2.0000     -10.285777      -279.8902
  47   2.0000     -10.283790      -279.8362
  48   2.0000     -10.275586      -279.6129
  49   2.0000     -10.275475      -279.6099
  50   2.0000     -10.272874      -279.5391
  51   2.0000     -10.272662      -279.5333
  52   2.0000     -10.264199      -279.3030
  53   2.0000     -10.260592      -279.2049
  54   2.0000     -10.259828      -279.1841
  55   2.0000     -10.258167      -279.1389
  56   2.0000     -10.237810      -278.5850
  57   2.0000     -10.237251      -278.5698
  58   2.0000     -10.236725      -278.5554
  59   2.0000     -10.236401      -278.5466
  60   2.0000     -10.236351      -278.5453
  61   2.0000     -10.235872      -278.5322
  62   2.0000     -10.235263      -278.5157
  63   2.0000     -10.234494      -278.4947
  64   2.0000     -10.234485      -278.4945
  65   2.0000     -10.234425      -278.4929
  66   2.0000     -10.233655      -278.4719
  67   2.0000     -10.232538      -278.4415
  68   2.0000     -10.204695      -277.6839
  69   2.0000     -10.203891      -277.6620
  70   2.0000     -10.203793      -277.6593
  71   2.0000     -10.203287      -277.6456
  72   2.0000     -10.203146      -277.6417
  73   2.0000     -10.202756      -277.6311
  74   2.0000     -10.202653      -277.6283
  75   2.0000     -10.201418      -277.5947
  76   2.0000     -10.198385      -277.5122
  77   2.0000     -10.198140      -277.5055
  78   2.0000     -10.197560      -277.4897
  79   2.0000     -10.197556      -277.4896
  80   2.0000     -10.197069      -277.4764
  81   2.0000     -10.196219      -277.4532
  82   2.0000     -10.195930      -277.4453
  83   2.0000     -10.195000      -277.4201
  84   2.0000     -10.194945      -277.4186
  85   2.0000     -10.194847      -277.4159
  86   2.0000     -10.194401      -277.4037
  87   2.0000     -10.194385      -277.4033
  88   2.0000     -10.192356      -277.3481
  89   2.0000     -10.189542      -277.2715
  90   2.0000     -10.189433      -277.2686
  91   2.0000     -10.188179      -277.2344
  92   2.0000     -10.176626      -276.9201
  93   2.0000     -10.176204      -276.9086
  94   2.0000     -10.174654      -276.8664
  95   2.0000     -10.174417      -276.8600
  96   2.0000     -10.141369      -275.9607
  97   2.0000     -10.137431      -275.8535
  98   2.0000     -10.135959      -275.8135
  99   2.0000     -10.135929      -275.8126
 100   2.0000      -4.882477      -132.8589
 101   2.0000      -4.877447      -132.7221
 102   2.0000      -4.875402      -132.6664
 103   2.0000      -4.875054      -132.6570
 104   2.0000      -4.851655      -132.0202
 105   2.0000      -4.850600      -131.9915
 106   2.0000      -3.277978       -89.1983
 107   2.0000      -3.272827       -89.0581
 108   2.0000      -3.272381       -89.0460
 109   2.0000      -3.270515       -88.9953
 110   2.0000      -3.270428       -88.9929
 111   2.0000      -3.270121       -88.9845
 112   2.0000      -3.267088       -88.9020
 113   2.0000      -3.265452       -88.8575
 114   2.0000      -3.265095       -88.8478
 115   2.0000      -3.264611       -88.8346
 116   2.0000      -3.263560       -88.8060
 117   2.0000      -3.263170       -88.7954
 118   2.0000      -3.246235       -88.3345
 119   2.0000      -3.245283       -88.3086
 120   2.0000      -3.241681       -88.2106
 121   2.0000      -3.240554       -88.1800
 122   2.0000      -3.239417       -88.1490
 123   2.0000      -3.238366       -88.1204
 124   2.0000      -1.048747       -28.5378
 125   2.0000      -1.045585       -28.4518
 126   2.0000      -1.039703       -28.2917
 127   2.0000      -1.038339       -28.2546
 128   2.0000      -1.037807       -28.2402
 129   2.0000      -1.037382       -28.2286
 130   2.0000      -0.912030       -24.8176
 131   2.0000      -0.908658       -24.7258
 132   2.0000      -0.904378       -24.6094
 133   2.0000      -0.903215       -24.5777
 134   2.0000      -0.902138       -24.5484
 135   2.0000      -0.899938       -24.4886
 136   2.0000      -0.873418       -23.7669
 137   2.0000      -0.872042       -23.7295
 138   2.0000      -0.871153       -23.7053
 139   2.0000      -0.869792       -23.6682
 140   2.0000      -0.869272       -23.6541
 141   2.0000      -0.868717       -23.6390
 142   2.0000      -0.852268       -23.1914
 143   2.0000      -0.850921       -23.1547
 144   2.0000      -0.849909       -23.1272
 145   2.0000      -0.847019       -23.0486
 146   2.0000      -0.771502       -20.9936
 147   2.0000      -0.771181       -20.9849
 148   2.0000      -0.769987       -20.9524
 149   2.0000      -0.769628       -20.9427
 150   2.0000      -0.768395       -20.9091
 151   2.0000      -0.768171       -20.9030
 152   2.0000      -0.768127       -20.9018
 153   2.0000      -0.766271       -20.8513
 154   2.0000      -0.761850       -20.7310
 155   2.0000      -0.761190       -20.7130
 156   2.0000      -0.760779       -20.7019
 157   2.0000      -0.760324       -20.6895
 158   2.0000      -0.752257       -20.4699
 159   2.0000      -0.748957       -20.3802
 160   2.0000      -0.748551       -20.3691
 161   2.0000      -0.747966       -20.3532
 162   2.0000      -0.662896       -18.0383
 163   2.0000      -0.659755       -17.9528
 164   2.0000      -0.655482       -17.8366
 165   2.0000      -0.653862       -17.7925
 166   2.0000      -0.653415       -17.7803
 167   2.0000      -0.653188       -17.7742
 168   2.0000      -0.633831       -17.2474
 169   2.0000      -0.632147       -17.2016
 170   2.0000      -0.630407       -17.1542
 171   2.0000      -0.630084       -17.1455
 172   2.0000      -0.628260       -17.0958
 173   2.0000      -0.627881       -17.0855
 174   2.0000      -0.627127       -17.0650
 175   2.0000      -0.626435       -17.0462
 176   2.0000      -0.619923       -16.8690
 177   2.0000      -0.617762       -16.8102
 178   2.0000      -0.617523       -16.8037
 179   2.0000      -0.616011       -16.7625
 180   2.0000      -0.594984       -16.1903
 181   2.0000      -0.593973       -16.1628
 182   2.0000      -0.592628       -16.1262
 183   2.0000      -0.591114       -16.0850
 184   2.0000      -0.570342       -15.5198
 185   2.0000      -0.567702       -15.4480
 186   2.0000      -0.566258       -15.4087
 187   2.0000      -0.564308       -15.3556
 188   2.0000      -0.563794       -15.3416
 189   2.0000      -0.562321       -15.3015
 190   2.0000      -0.558259       -15.1910
 191   2.0000      -0.557243       -15.1633
 192   2.0000      -0.555577       -15.1180
 193   2.0000      -0.555134       -15.1060
 194   2.0000      -0.554446       -15.0872
 195   2.0000      -0.554034       -15.0760
 196   2.0000      -0.551869       -15.0171
 197   2.0000      -0.551625       -15.0105
 198   2.0000      -0.550643       -14.9838
 199   2.0000      -0.550108       -14.9692
 200   2.0000      -0.548402       -14.9228
 201   2.0000      -0.548362       -14.9217
 202   2.0000      -0.548015       -14.9122
 203   2.0000      -0.547791       -14.9062
 204   2.0000      -0.544324       -14.8118
 205   2.0000      -0.542281       -14.7562
 206   2.0000      -0.540823       -14.7165
 207   2.0000      -0.539521       -14.6811
 208   2.0000      -0.531583       -14.4651
 209   2.0000      -0.530696       -14.4410
 210   2.0000      -0.529606       -14.4113
 211   2.0000      -0.528242       -14.3742
 212   2.0000      -0.527922       -14.3655
 213   2.0000      -0.527192       -14.3456
 214   2.0000      -0.526149       -14.3172
 215   2.0000      -0.525333       -14.2950
 216   2.0000      -0.524108       -14.2617
 217   2.0000      -0.523103       -14.2344
 218   2.0000      -0.519869       -14.1463
 219   2.0000      -0.517846       -14.0913
 220   2.0000      -0.517234       -14.0746
 221   2.0000      -0.516037       -14.0421
 222   2.0000      -0.515527       -14.0282
 223   2.0000      -0.514190       -13.9918
 224   2.0000      -0.513942       -13.9851
 225   2.0000      -0.512476       -13.9452
 226   2.0000      -0.505658       -13.7596
 227   2.0000      -0.505207       -13.7474
 228   2.0000      -0.500236       -13.6121
 229   2.0000      -0.498446       -13.5634
 230   2.0000      -0.497286       -13.5319
 231   2.0000      -0.497080       -13.5262
 232   2.0000      -0.492370       -13.3981
 233   2.0000      -0.491258       -13.3678
 234   2.0000      -0.488953       -13.3051
 235   2.0000      -0.487569       -13.2674
 236   2.0000      -0.474291       -12.9061
 237   2.0000      -0.473516       -12.8850
 238   2.0000      -0.470193       -12.7946
 239   2.0000      -0.468184       -12.7399
 240   2.0000      -0.467855       -12.7310
 241   2.0000      -0.467659       -12.7257
 242   2.0000      -0.467408       -12.7188
 243   2.0000      -0.466508       -12.6943
 244   2.0000      -0.466126       -12.6839
 245   2.0000      -0.464831       -12.6487
 246   2.0000      -0.463647       -12.6165
 247   2.0000      -0.462780       -12.5929
 248   2.0000      -0.452830       -12.3221
 249   2.0000      -0.451456       -12.2847
 250   2.0000      -0.449274       -12.2254
 251   2.0000      -0.448426       -12.2023
 252   2.0000      -0.446207       -12.1419
 253   2.0000      -0.445757       -12.1297
 254   2.0000      -0.442011       -12.0277
 255   2.0000      -0.440109       -11.9760
 256   2.0000      -0.439013       -11.9462
 257   2.0000      -0.438265       -11.9258
 258   2.0000      -0.419099       -11.4043
 259   2.0000      -0.418785       -11.3957
 260   2.0000      -0.417825       -11.3696
 261   2.0000      -0.416244       -11.3266
 262   2.0000      -0.409839       -11.1523
 263   2.0000      -0.408628       -11.1193
 264   2.0000      -0.407175       -11.0798
 265   2.0000      -0.402506       -10.9527
 266   2.0000      -0.401181       -10.9167
 267   2.0000      -0.393732       -10.7140
 268   2.0000      -0.393394       -10.7048
 269   2.0000      -0.393033       -10.6950
 270   2.0000      -0.392530       -10.6813
 271   2.0000      -0.390581       -10.6283
 272   2.0000      -0.389692       -10.6040
 273   2.0000      -0.389039       -10.5863
 274   2.0000      -0.387814       -10.5530
 275   2.0000      -0.384485       -10.4624
 276   2.0000      -0.377926       -10.2839
 277   2.0000      -0.376621       -10.2484
 278   2.0000      -0.375156       -10.2085
 279   2.0000      -0.373694       -10.1687
 280   2.0000      -0.371842       -10.1183
 281   2.0000      -0.370219       -10.0742
 282   2.0000      -0.369390       -10.0516
 283   2.0000      -0.368094       -10.0163
 284   2.0000      -0.367558       -10.0017
 285   2.0000      -0.366920        -9.9844
 286   2.0000      -0.365436        -9.9440
 287   2.0000      -0.364079        -9.9071
 288   2.0000      -0.362639        -9.8679
 289   2.0000      -0.360597        -9.8123
 290   2.0000      -0.356723        -9.7069
 291   2.0000      -0.355825        -9.6825
 292   2.0000      -0.350407        -9.5351
 293   2.0000      -0.348228        -9.4758
 294   2.0000      -0.345504        -9.4016
 295   2.0000      -0.343614        -9.3502
 296   2.0000      -0.342744        -9.3265
 297   2.0000      -0.342207        -9.3119
 298   2.0000      -0.340009        -9.2521
 299   2.0000      -0.339516        -9.2387
 300   2.0000      -0.338570        -9.2130
 301   2.0000      -0.338005        -9.1976
 302   2.0000      -0.298238        -8.1155
 303   2.0000      -0.295671        -8.0456
 304   2.0000      -0.294102        -8.0029
 305   2.0000      -0.292199        -7.9511
 306   2.0000      -0.263802        -7.1784
 307   2.0000      -0.262383        -7.1398
 308   2.0000      -0.262207        -7.1350
 309   2.0000      -0.260797        -7.0966
 310   2.0000      -0.260463        -7.0876
 311   2.0000      -0.259007        -7.0479
 312   2.0000      -0.258357        -7.0303
 313   2.0000      -0.257686        -7.0120
 314   2.0000      -0.257205        -6.9989
 315   2.0000      -0.256246        -6.9728
 316   2.0000      -0.255441        -6.9509
 317   2.0000      -0.254573        -6.9273
 318   2.0000      -0.240529        -6.5451
 319   2.0000      -0.240039        -6.5318
 320   2.0000      -0.238217        -6.4822
 321   2.0000      -0.237135        -6.4528
 322   2.0000      -0.165808        -4.5119
 323   2.0000      -0.165488        -4.5031
 324   2.0000      -0.160641        -4.3713
 325   2.0000      -0.159104        -4.3294
 326   2.0000      -0.143048        -3.8925
 327   0.0000      -0.135235        -3.6799
 328   0.0000      -0.128098        -3.4857
 329   0.0000      -0.124597        -3.3905
 330   0.0000      -0.122212        -3.3256
 331   0.0000      -0.119866        -3.2617

MULLIKEN ATOMIC CHARGES
-----------------------
   0 C :   -0.047600
   1 H :    0.168762
   2 C :    0.056316
   3 C :   -0.204057
   4 H :    0.093364
   5 C :   -0.102771
   6 H :    0.130464
   7 C :   -0.143687
   8 H :    0.147745
   9 C :   -0.069576
  10 H :    0.173922
  11 C :    0.055023
  12 C :   -0.142776
  13 H :    0.112622
  14 C :    0.219336
  15 C :   -0.428565
  16 H :    0.148908
  17 C :   -0.118169
  18 H :    0.121236
  19 C :   -0.259633
  20 H :    0.066735
  21 N :   -0.158966
  22 N :   -0.346443
  23 N :   -0.194492
  24 Zn:    0.668859
  25 C :    0.040164
  26 C :   -0.157413
  27 H :    0.092600
  28 C :    0.202956
  29 C :   -0.374545
  30 H :    0.182788
  31 C :    0.066027
  32 C :   -0.156562
  33 H :    0.096544
  34 C :   -0.261151
  35 H :    0.079978
  36 C :   -0.091255
  37 H :    0.128786
  38 N :   -0.200155
  39 N :   -0.165806
  40 N :   -0.370639
  41 Zn:    0.706396
  42 C :   -0.017433
  43 C :    0.087190
  44 C :   -0.122760
  45 C :    0.090247
  46 C :   -0.150776
  47 N :   -0.179462
  48 C :   -0.025376
  49 H :    0.164900
  50 C :    0.069954
  51 C :   -0.131501
  52 H :    0.137142
  53 C :   -0.138539
  54 H :    0.158663
  55 C :   -0.152120
  56 H :    0.114027
  57 H :    0.132776
  58 N :   -0.196552
  59 Zn:    0.318589
  60 C :    0.046973
  61 C :   -0.130300
  62 N :   -0.180202
  63 H :    0.158044
  64 C :   -0.166784
  65 H :    0.124843
  66 C :   -0.123052
  67 H :    0.157642
  68 H :    0.119231
  69 C :    0.048519
  70 C :   -0.106476
  71 H :    0.143799
  72 N :   -0.194501
  73 N :   -0.192531
  74 Zn:    0.320407
  75 C :   -0.019604
  76 C :    0.061122
  77 C :   -0.166580
  78 H :    0.097207
  79 C :    0.220188
  80 C :   -0.392268
  81 H :    0.139676
  82 C :    0.041794
  83 C :   -0.132400
  84 H :    0.106471
  85 C :   -0.264434
  86 H :    0.070318
  87 C :   -0.111386
  88 H :    0.124394
  89 N :   -0.165890
  90 N :   -0.354000
  91 Zn:    0.700311
  92 H :    0.158460
  93 C :   -0.185786
  94 H :    0.091344
  95 C :   -0.097897
  96 H :    0.122215
  97 H :    0.139587
  98 C :   -0.079060
  99 H :    0.157312
 100 C :    0.021212
 101 C :   -0.139201
 102 H :    0.128687
 103 C :    0.193828
 104 C :   -0.392580
 105 H :    0.170197
 106 C :   -0.113413
 107 H :    0.119619
 108 C :   -0.248281
 109 H :    0.067279
 110 N :   -0.165548
 111 N :   -0.350863
 112 N :   -0.174411
 113 Zn:    0.672535
Sum of atomic charges:    0.0000000

LOEWDIN ATOMIC CHARGES
----------------------
   0 C :    0.037177
   1 H :    0.084177
   2 C :   -0.031443
   3 C :   -0.092665
   4 H :    0.075102
   5 C :   -0.076380
   6 H :    0.079078
   7 C :   -0.069194
   8 H :    0.090531
   9 C :    0.045665
  10 H :    0.080234
  11 C :   -0.023237
  12 C :   -0.072690
  13 H :    0.084290
  14 C :    0.101399
  15 C :   -0.264079
  16 H :    0.078296
  17 C :   -0.072228
  18 H :    0.083497
  19 C :   -0.235511
  20 H :    0.025707
  21 N :   -0.234646
  22 N :   -0.392755
  23 N :   -0.226211
  24 Zn:    0.893180
  25 C :   -0.032526
  26 C :   -0.093837
  27 H :    0.074388
  28 C :    0.104476
  29 C :   -0.240517
  30 H :    0.096064
  31 C :   -0.031173
  32 C :   -0.076180
  33 H :    0.083632
  34 C :   -0.210061
  35 H :    0.033116
  36 C :   -0.071705
  37 H :    0.084915
  38 N :   -0.232742
  39 N :   -0.233687
  40 N :   -0.397366
  41 Zn:    0.921297
  42 C :    0.042140
  43 C :   -0.019698
  44 C :   -0.075695
  45 C :   -0.020612
  46 C :   -0.064950
  47 N :   -0.245713
  48 C :    0.043619
  49 H :    0.086037
  50 C :   -0.022026
  51 C :   -0.071546
  52 H :    0.087448
  53 C :   -0.067229
  54 H :    0.090082
  55 C :   -0.073299
  56 H :    0.081209
  57 H :    0.087947
  58 N :   -0.247271
  59 Zn:    0.594492
  60 C :   -0.029416
  61 C :   -0.096166
  62 N :   -0.235629
  63 H :    0.083402
  64 C :   -0.066798
  65 H :    0.087700
  66 C :   -0.069658
  67 H :    0.093103
  68 H :    0.079878
  69 C :   -0.024130
  70 C :   -0.070223
  71 H :    0.089118
  72 N :   -0.249590
  73 N :   -0.245707
  74 Zn:    0.593938
  75 C :    0.044180
  76 C :   -0.030591
  77 C :   -0.073032
  78 H :    0.077552
  79 C :    0.113308
  80 C :   -0.257719
  81 H :    0.080946
  82 C :   -0.027798
  83 C :   -0.074329
  84 H :    0.085257
  85 C :   -0.232946
  86 H :    0.027683
  87 C :   -0.072171
  88 H :    0.084916
  89 N :   -0.223028
  90 N :   -0.391645
  91 Zn:    0.916213
  92 H :    0.083070
  93 C :   -0.093838
  94 H :    0.076439
  95 C :   -0.076967
  96 H :    0.081018
  97 H :    0.089187
  98 C :    0.040540
  99 H :    0.074700
 100 C :   -0.026074
 101 C :   -0.077456
 102 H :    0.084901
 103 C :    0.103261
 104 C :   -0.251444
 105 H :    0.087330
 106 C :   -0.070197
 107 H :    0.084553
 108 C :   -0.219728
 109 H :    0.031867
 110 N :   -0.236966
 111 N :   -0.393123
 112 N :   -0.224590
 113 Zn:    0.896576

  Mayer bond orders larger than 0.100000
B(  0-C ,  1-H ) :   0.9328 B(  0-C , 21-N ) :   1.4080 B(  0-C , 47-N ) :   1.4253
B(  2-C ,  3-C ) :   1.2891 B(  2-C , 21-N ) :   1.1468 B(  2-C , 45-C ) :   1.3162
B(  3-C ,  4-H ) :   0.9783 B(  3-C ,  5-C ) :   1.4844 B(  5-C ,  6-H ) :   0.9477
B(  5-C ,  7-C ) :   1.3387 B(  7-C ,  8-H ) :   0.9497 B(  7-C , 46-C ) :   1.5282
B(  9-C , 10-H ) :   0.9403 B(  9-C , 23-N ) :   1.4407 B(  9-C , 38-N ) :   1.4121
B( 11-C , 12-C ) :   1.3222 B( 11-C , 23-N ) :   1.0928 B( 11-C , 31-C ) :   1.4011
B( 11-C , 38-N ) :  -0.1024 B( 12-C , 13-H ) :   0.9265 B( 12-C , 17-C ) :   1.5051
B( 14-C , 15-C ) :   1.1653 B( 14-C , 22-N ) :   2.0483 B( 15-C , 16-H ) :   0.8874
B( 15-C , 19-C ) :   1.6842 B( 15-C , 22-N ) :   0.1114 B( 17-C , 18-H ) :   0.9560
B( 17-C , 36-C ) :   1.3517 B( 19-C , 20-H ) :   0.8590 B( 19-C , 22-N ) :   0.1411
B( 21-N , 24-Zn) :   0.5669 B( 22-N , 24-Zn) :   0.5465 B( 23-N , 24-Zn) :   0.5393
B( 25-C , 26-C ) :   1.2910 B( 25-C , 39-N ) :   1.1279 B( 25-C , 43-C ) :   1.3432
B( 26-C , 27-H ) :   0.9601 B( 26-C , 44-C ) :   1.4872 B( 28-C , 29-C ) :   1.2056
B( 28-C , 40-N ) :   2.0902 B( 29-C , 30-H ) :   0.8904 B( 29-C , 34-C ) :   1.6341
B( 31-C , 32-C ) :   1.3068 B( 31-C , 38-N ) :   1.0918 B( 32-C , 33-H ) :   0.9566
B( 32-C , 36-C ) :   1.4795 B( 34-C , 35-H ) :   0.8889 B( 34-C , 40-N ) :   0.1495
B( 36-C , 37-H ) :   0.9514 B( 38-N , 41-Zn) :   0.5561 B( 39-N , 41-Zn) :   0.5789
B( 39-N , 42-C ) :   1.4244 B( 40-N , 41-Zn) :   0.5614 B( 42-C , 63-H ) :   0.9355
B( 42-C , 72-N ) :   1.4362 B( 43-C , 64-C ) :   1.2896 B( 43-C , 72-N ) :   1.1481
B( 44-C , 66-C ) :   1.3662 B( 44-C , 68-H ) :   0.9507 B( 45-C , 46-C ) :   1.2804
B( 45-C , 47-N ) :   1.1556 B( 46-C , 57-H ) :   0.9661 B( 47-N , 59-Zn) :   0.4226
B( 48-C , 49-H ) :   0.9340 B( 48-C , 58-N ) :   1.4368 B( 48-C , 62-N ) :   1.4154
B( 50-C , 51-C ) :   1.2882 B( 50-C , 58-N ) :   1.1504 B( 50-C , 60-C ) :   1.3454
B( 51-C , 52-H ) :   0.9515 B( 51-C , 53-C ) :   1.5412 B( 53-C , 54-H ) :   0.9297
B( 53-C , 55-C ) :   1.3745 B( 55-C , 56-H ) :   0.9641 B( 55-C , 61-C ) :   1.4745
B( 58-N , 59-Zn) :   0.4315 B( 59-Zn, 74-Zn) :   0.6336 B( 60-C , 61-C ) :   1.3083
B( 60-C , 62-N ) :   1.1032 B( 61-C , 78-H ) :   0.9514 B( 62-N , 91-Zn) :   0.5877
B( 64-C , 65-H ) :   0.9691 B( 64-C , 66-C ) :   1.5256 B( 66-C , 67-H ) :   0.9353
B( 69-C , 70-C ) :   1.3030 B( 69-C , 73-N ) :   1.1420 B( 69-C , 76-C ) :   1.3625
B( 70-C , 71-H ) :   0.9368 B( 70-C , 77-C ) :   1.5352 B( 72-N , 74-Zn) :   0.4251
B( 73-N , 74-Zn) :   0.4355 B( 73-N , 75-C ) :   1.4358 B( 75-C , 92-H ) :   0.9346
B( 75-C ,110-N ) :   1.4181 B( 76-C , 93-C ) :   1.3114 B( 76-C ,110-N ) :   1.1194
B( 77-C , 95-C ) :   1.3653 B( 77-C , 97-H ) :   0.9507 B( 79-C , 80-C ) :   1.1768
B( 79-C , 90-N ) :   2.0674 B( 80-C , 81-H ) :   0.8915 B( 80-C , 85-C ) :   1.6790
B( 80-C , 90-N ) :   0.1117 B( 82-C , 83-C ) :   1.3357 B( 82-C , 89-N ) :   1.1171
B( 82-C ,100-C ) :   1.4178 B( 82-C ,112-N ) :  -0.1040 B( 83-C , 84-H ) :   0.9353
B( 83-C , 87-C ) :   1.4693 B( 85-C , 86-H ) :   0.8750 B( 85-C , 90-N ) :   0.1420
B( 87-C , 88-H ) :   0.9592 B( 87-C ,106-C ) :   1.3766 B( 89-N , 91-Zn) :   0.5453
B( 89-N , 98-C ) :   1.4187 B( 89-N ,100-C ) :  -0.1019 B( 90-N , 91-Zn) :   0.5435
B( 93-C , 94-H ) :   0.9605 B( 93-C , 95-C ) :   1.4807 B( 95-C , 96-H ) :   0.9500
B( 98-C , 99-H ) :   0.9565 B( 98-C ,112-N ) :   1.4193 B(100-C ,101-C ) :   1.3424
B(100-C ,112-N ) :   1.1208 B(101-C ,102-H ) :   0.8878 B(101-C ,106-C ) :   1.5060
B(103-C ,104-C ) :   1.1966 B(103-C ,111-N ) :   2.0782 B(104-C ,105-H ) :   0.8827
B(104-C ,108-C ) :   1.6725 B(104-C ,111-N ) :   0.1003 B(106-C ,107-H ) :   0.9589
B(108-C ,109-H ) :   0.8799 B(108-C ,111-N ) :   0.1410 B(110-N ,113-Zn) :   0.5526
B(111-N ,113-Zn) :   0.5418 B(112-N ,113-Zn) :   0.5354

FINAL SINGLE POINT ENERGY    -13631.007404495904

DIPOLE MOMENT
-------------
                                X             Y             Z
Electronic contribution:      0.76199       0.00662      -0.35954
Nuclear contribution   :     -0.78058      -0.19483       0.45196
                        -----------------------------------------
Total Dipole Moment    :     -0.01858      -0.18820       0.09242
                        -----------------------------------------
Magnitude (a.u.)       :      0.21049
Magnitude (Debye)      :      0.53503

Rotational constants in cm-1:     0.000840     0.000495     0.000390
Rotational constants in MHz :    25.189762    14.844712    11.700329

                             ****ORCA TERMINATED NORMALLY****
TOTAL RUN TIME: 0 days 16 hours 9 minutes 49 seconds 501 msec
